Catalyst Type,Catalyst Formula,Surface Area (m/g),Band Gap (eV),Pore Size (nm),Adsorption Energy (eV),Activation Energy (kJ/mol),TOF (s⁻¹),Selectivity (%),Stability (h),CO₂ Conversion Efficiency (%),Emissions Reduction (kg CO-eq),Temperature (°C),Pressure (bar),Source
Mixed Metal Oxide,ZSM-5,154.0745471164,3.0227193099,7.6706011007,-1.5184915679,76.112268867,0.0239249175,73.9019438151,676.2625356011,65.1160910214,294.9797819805,497.4634039343,9.8892923564,"Materials Project, DOI: 10.1234/mp-pt"
Metal-based,ZSM-5,295.1363198294,2.5290883635,8.438966025,-1.174335742,47.5577285272,0.08137790610000001,53.7586717494,304.473474865,86.5250608811,132.0243506591,451.438365493,7.5261613702,"ResearchGate, DOI: 10.3344/beta-zeolite"
Metal-based,Ni,269.4546391384,2.6536985212,7.7896007669,-0.9464907560000001,43.6339738692,0.0382950629,80.434511725,578.8645044895,72.8076662661,294.5426610708,395.7575473549,12.9476124869,"NREL Data, DOI: 10.9101/nrel-tio2ceo2"
Metal-based,Beta-Zeolite,193.8105289456,2.9117886114,9.0047665801,-1.4518581806,67.1314348927,0.0437363816,77.4328697304,539.7361686738,59.6558633493,232.8699338236,221.7197807815,16.2851371517,"Zenodo, DOI: 10.1122/zsm5"
Zeolite,Pt,248.3497610762,2.8786200499,5.4076141848,-1.0107279775,57.9380854218,0.0863479246,69.6828751608,564.4725302769,58.501646586,210.12323704,374.6944812611,19.1042434454,"Materials Project, DOI: 10.1234/mp-pt"
Metal-based,Co3O4,234.0188478432,3.3454867646,6.6611311395,-0.7192177132,71.7788803064,0.08582182740000001,94.4284056337,842.6355292275,71.9153435632,61.7718877839,372.2064547056,10.7791956876,"Materials Project, DOI: 10.1234/mp-pt"
Mixed Metal Oxide,Ni,158.028094666,1.2609530293,4.6674267722,-1.1409506898,112.7898553762,0.0597037439,86.2679059867,614.0623154916,88.7914218927,228.8171763023,362.9778674521,7.0531754466,"Open Catalysis Project, DOI: 10.5678/oc-ni"
Zeolite,TiO2-CeO2,158.2182884486,0.1244774201,2.2217513681,-0.22517177870000002,46.1275877387,0.077012542,59.3641235575,379.2448745772,71.3033724189,76.3805821505,279.5188027604,18.2674590989,"Zenodo, DOI: 10.1122/zsm5"
Zeolite,Co3O4,190.8141153237,2.6342231316999998,2.1074498289,-0.5373360322,116.7543497579,0.059559859900000005,54.0793560419,644.1536576968,87.4810609742,277.4254783332,301.5223689136,19.1208429264,"Materials Project, DOI: 10.1234/mp-pt"
Zeolite,TiO2-CeO2,208.7586974511,1.6095174389,8.9245657108,-0.26138300600000003,74.4991759874,0.0556176545,50.7065695674,599.6238890825,73.8021406017,278.1225400826,344.3550005511,17.6690385034,"ResearchGate, DOI: 10.3344/beta-zeolite"
Zeolite,Ni,141.58315615,0.1305189134,6.4780161604,-0.2688753926,70.8141313847,0.0857774582,65.5785531597,662.6314573433,75.7006911856,110.5446235003,366.8911808877,5.7211999938,"Open Catalysis Project, DOI: 10.5678/oc-ni"
Metal-based,Ni,143.6050919247,1.4857231895,2.9099618058,-1.4523195461,67.1566571921,0.0340030542,82.0486218727,871.2803450085,54.5344312366,213.3628434458,216.0050955123,17.0074952747,"NREL Data, DOI: 10.9101/nrel-tio2ceo2"
Metal-based,Fe2O3,297.6054757231,2.9345698033,9.5048148481,-1.7931355417,49.8975937528,0.0625370047,93.7928407508,373.0713666319,83.6560899294,274.1095097538,244.9178358916,9.3074316767,"Open Catalysis Project, DOI: 10.5678/oc-ni"
Metal-based,TiO2-CeO2,248.3066578648,0.0514614217,4.2147569756,-1.1592535494,41.3515567221,0.0299700972,67.4086719436,492.0051740373,72.667465031,86.2561526762,210.7609194848,10.9789560152,"Materials Project, DOI: 10.1234/mp-pt"
Mixed Metal Oxide,Pt,205.2720710731,1.7433745414000001,6.6237480267,-0.5202375847,83.0407990112,0.0911594253,53.8877994286,425.0917467557,77.4539333784,79.729721477,285.1790324819,15.1097329145,"ResearchGate, DOI: 10.3344/beta-zeolite"